FoamFile
{
    version     2.0;
    format      ascii;
    class       volScalarField;
    object      rDeltaT;
}
dimensions      [0 0 -1 0 0 0 0];
internalField   uniform 1;
boundaryField
{
    ".*"
    {
        type            zeroGradient;
    }
}
